
#(C) 2019 by FIZ Karlsruhe - Leibniz Institute for Information Infrastructure.  All rights reserved.
data_188459-ICSD
_database_code_ICSD 188459
_audit_creation_date 2014-02-01
_chemical_name_systematic 'Europium trialuminium tetraborate'
_chemical_formula_structural 'Eu Al3 (B O3)4'
_chemical_formula_sum 'Al3 B4 Eu1 O12'
_chemical_name_structure_type Mg3Ca(CO3)4
_exptl_crystal_density_diffrn 4.27
_publ_section_title
'EPR spectra of Cr(3+) ion in the Van Vleck paramagnet Eu Al3 (B O3)4'
loop_
_citation_id
_citation_journal_full
_citation_year
_citation_journal_volume
_citation_page_first
_citation_page_last
_citation_journal_id_ASTM
primary 'Physica Status Solidi B: Basic Solid State Physics' 2013 250 1331 1338
PSSBBD
loop_
_publ_author_name
'Prokhorov, A.D.'
'Zubov, E.E.'
'Prokhorov, A.A.'
'Chernush, L.F.'
'Minyakaev, R.'
'Dyakonov, V.P.'
'Szymczak, H.'
_cell_length_a 9.312(3)
_cell_length_b 9.312(3)
_cell_length_c 7.275(3)
_cell_angle_alpha 90.
_cell_angle_beta 90.
_cell_angle_gamma 120.
_cell_volume 546.32
_cell_formula_units_Z 3
_symmetry_space_group_name_H-M 'R 3 2 H'
_symmetry_Int_Tables_number 155
loop_
_symmetry_equiv_pos_site_id
_symmetry_equiv_pos_as_xyz
1 '-x, -x+y, -z'
2 'x-y, -y, -z'
3 'y, x, -z'
4 '-x+y, -x, z'
5 '-y, x-y, z'
6 'x, y, z'
7 '-x+2/3, -x+y+1/3, -z+1/3'
8 'x-y+2/3, -y+1/3, -z+1/3'
9 'y+2/3, x+1/3, -z+1/3'
10 '-x+y+2/3, -x+1/3, z+1/3'
11 '-y+2/3, x-y+1/3, z+1/3'
12 'x+2/3, y+1/3, z+1/3'
13 '-x+1/3, -x+y+2/3, -z+2/3'
14 'x-y+1/3, -y+2/3, -z+2/3'
15 'y+1/3, x+2/3, -z+2/3'
16 '-x+y+1/3, -x+2/3, z+2/3'
17 '-y+1/3, x-y+2/3, z+2/3'
18 'x+1/3, y+2/3, z+2/3'
loop_
_atom_type_symbol
_atom_type_oxidation_number
Eu3+ 3
Al3+ 3
B3+ 3
O2- -2
loop_
_atom_site_label
_atom_site_type_symbol
_atom_site_symmetry_multiplicity
_atom_site_Wyckoff_symbol
_atom_site_fract_x
_atom_site_fract_y
_atom_site_fract_z
_atom_site_B_iso_or_equiv
_atom_site_occupancy
_atom_site_attached_hydrogens
Eu1 Eu3+ 3 a 0 0 0 . 1. 0
Al1 Al3+ 9 d 0.55397(26) 0 0 . 1. 0
B1 B3+ 3 b 0 0 0.5 . 1. 0
B2 B3+ 9 e 0.44962(134) 0 0.5 . 1. 0
O1 O2- 9 e 0.85390(48) 0 0.5 . 1. 0
O2 O2- 9 e 0.58470(71) 0 0.5 . 1. 0
O3 O2- 18 f 0.43499(49) 0.13283(44) 0.53996(63) . 1. 0
#End of TTdata_188459-ICSD