#------------------------------------------------------------------------------
#$Date: 2016-02-14 16:26:36 +0200 (Sun, 14 Feb 2016) $
#$Revision: 176435 $
#$URL: svn://www.crystallography.net/cod/cif/1/01/01/1010133.cif $
#------------------------------------------------------------------------------
#
# This file is available in the Crystallography Open Database (COD),
# http://www.crystallography.net/
#
# All data on this site have been placed in the public domain by the
# contributors.
#
data_1010133
loop_
_publ_author_name
'Natta, G'
'Casazza, E'
_publ_section_title
;
La struttura dell'idrogeno fosforato (P H~3~) e dell'idrogeno
arsenicale (As H~3~)
;
_journal_coden_ASTM              GCITA9
_journal_name_full               'Gazzetta Chimica Italiana'
_journal_page_first              851
_journal_page_last               859
_journal_volume                  60
_journal_year                    1930
_chemical_formula_structural     'As H3'
_chemical_formula_sum            'As H3'
_chemical_name_systematic        'Hydrogen arsenide'
_space_group_IT_number           208
_symmetry_cell_setting           cubic
_symmetry_Int_Tables_number      208
_symmetry_space_group_name_Hall  'P 4n 2 3'
_symmetry_space_group_name_H-M   'P 42 3 2'
_cell_angle_alpha                90
_cell_angle_beta                 90
_cell_angle_gamma                90
_cell_formula_units_Z            4
_cell_length_a                   6.40(2)
_cell_length_b                   6.40(2)
_cell_length_c                   6.40(2)
_cell_volume                     262.1
_cod_original_formula_sum        'H3 As'
_cod_database_code               1010133
loop_
_symmetry_equiv_pos_as_xyz
x,y,z
y,z,x
z,x,y
1/2-x,1/2-z,1/2-y
1/2-y,1/2-x,1/2-z
1/2-z,1/2-y,1/2-x
-x,y,-z
-y,z,-x
-z,x,-y
1/2+x,1/2-z,1/2+y
1/2+y,1/2-x,1/2+z
1/2+z,1/2-y,1/2+x
x,-y,-z
y,-z,-x
z,-x,-y
1/2-x,1/2+z,1/2+y
1/2-y,1/2+x,1/2+z
1/2-z,1/2+y,1/2+x
-x,-y,z
-y,-z,x
-z,-x,y
1/2+x,1/2+z,1/2-y
1/2+y,1/2+x,1/2-z
1/2+z,1/2+y,1/2-x
loop_
_atom_site_label
_atom_site_type_symbol
_atom_site_symmetry_multiplicity
_atom_site_Wyckoff_symbol
_atom_site_fract_x
_atom_site_fract_y
_atom_site_fract_z
_atom_site_occupancy
_atom_site_attached_hydrogens
_atom_site_calc_flag
As1 As3- 4 b 0.25 0.25 0.25 1. 0 d
H1 H1+ 12 j 0.184 0.5 0. 1. 0 d
loop_
_atom_type_symbol
_atom_type_oxidation_number
As3- -3.000
H1+ 1.000
