#------------------------------------------------------------------------------
#$Date: 2015-01-27 21:58:39 +0200 (Tue, 27 Jan 2015) $
#$Revision: 130149 $
#$URL: svn://www.crystallography.net/cod/cif/1/01/01/1010154.cif $
#------------------------------------------------------------------------------
#
# This file is available in the Crystallography Open Database (COD),
# http://www.crystallography.net/
#
# All data on this site have been placed in the public domain by the
# contributors.
#
data_1010154
loop_
_publ_author_name
'Schrewelius, N'
_publ_section_title
;
Roentgenuntersuchung der Verbindungen Na Sb (O H)~6~, Na Sb F~6~, Na Sb
O~3~ und gleichartiger Stoffe
;
_journal_coden_ASTM              ZAACAB
_journal_name_full
;
Zeitschrift fuer Anorganische und Allgemeine Chemie
;
_journal_page_first              241
_journal_page_last               254
_journal_paper_doi               10.1002/zaac.19382380209
_journal_volume                  238
_journal_year                    1938
_chemical_formula_structural     'Na Sb F6'
_chemical_formula_sum            'F6 Na Sb'
_chemical_name_systematic        'Sodium hexafluoroantimonate'
_space_group_IT_number           205
_symmetry_cell_setting           cubic
_symmetry_Int_Tables_number      205
_symmetry_space_group_name_Hall  '-P 2ac 2ab 3'
_symmetry_space_group_name_H-M   'P a -3'
_cell_angle_alpha                90
_cell_angle_beta                 90
_cell_angle_gamma                90
_cell_formula_units_Z            4
_cell_length_a                   8.18
_cell_length_b                   8.18
_cell_length_c                   8.18
_cell_volume                     547.3
_cod_database_code               1010154
loop_
_symmetry_equiv_pos_as_xyz
x,y,z
1/2+x,1/2-y,-z
-x,1/2+y,1/2-z
1/2-x,-y,1/2+z
y,z,x
1/2-y,-z,1/2+x
1/2+y,1/2-z,-x
-y,1/2+z,1/2-x
z,x,y
-z,1/2+x,1/2-y
1/2-z,-x,1/2+y
1/2+z,1/2-x,-y
-x,-y,-z
1/2-x,1/2+y,z
x,1/2-y,1/2+z
1/2+x,y,1/2-z
-y,-z,-x
1/2+y,z,1/2-x
1/2-y,1/2+z,x
y,1/2-z,1/2+x
-z,-x,-y
z,1/2-x,1/2+y
1/2+z,x,1/2-y
1/2-z,1/2+x,y
loop_
_atom_site_label
_atom_site_type_symbol
_atom_site_symmetry_multiplicity
_atom_site_Wyckoff_symbol
_atom_site_fract_x
_atom_site_fract_y
_atom_site_fract_z
_atom_site_occupancy
_atom_site_attached_hydrogens
_atom_site_calc_flag
Na1 Na1+ 4 b 0.5 0.5 0.5 1. 0 d
Sb1 Sb5+ 4 a 0. 0. 0. 1. 0 d
F1 F1- 24 d -0.05 0.05 0.225 1. 0 d
loop_
_atom_type_symbol
_atom_type_oxidation_number
Na1+ 1.000
Sb5+ 5.000
F1- -1.000
